
     Program PWSCF v.7.5 starts on  6Apr2026 at  6: 0:45

     This program is part of the open-source Quantum ESPRESSO suite
     for quantum simulation of materials; please cite
         "P. Giannozzi et al., J. Phys.:Condens. Matter 21 395502 (2009);
         "P. Giannozzi et al., J. Phys.:Condens. Matter 29 465901 (2017);
         "P. Giannozzi et al., J. Chem. Phys. 152 154105 (2020);
          URL http://www.quantum-espresso.org",
     in publications or presentations arising from this work. More details at
     http://www.quantum-espresso.org/quote

     Parallel version (MPI), running on     1 processors

     MPI processes distributed on     1 nodes
     0 MiB available memory on the printing compute node when the environment starts

     Reading input from aiida.in

     Current dimensions of program PWSCF are:
     Max number of different atomic species (ntypx) = 10
     Max number of k-points (npk) =  40000
     Max angular momentum in pseudopotentials (lmaxx) =  4
     file O.pbesol-n-kjpaw_psl.0.1.UPF: wavefunction(s)  2P renormalized

     Subspace diagonalization in iterative solution of the eigenvalue problem:
     a serial algorithm will be used


     G-vector sticks info
     --------------------
     sticks:   dense  smooth     PW     G-vecs:    dense   smooth      PW
     Sum         447     223     73                 5905     2087     381

     Using Slab Decomposition



     bravais-lattice index     =            0
     lattice parameter (alat)  =       4.2185  a.u.
     unit-cell volume          =      43.8707 (a.u.)^3
     number of atoms/cell      =            2
     number of atomic types    =            2
     number of electrons       =        24.00 (up:  13.00, down:  11.00)
     number of Kohn-Sham states=           17
     kinetic-energy cutoff     =      50.0000  Ry
     charge density cutoff     =     400.0000  Ry
     scf convergence threshold =      8.0E-10
     mixing beta               =       0.4000
     number of iterations used =            8  plain     mixing
     Exchange-correlation= SLA  PW   PSX  PSC
                           (   1   4  10   8   0   0   0)

     celldm(1)=   4.218504  celldm(2)=   0.000000  celldm(3)=   0.000000
     celldm(4)=   0.000000  celldm(5)=   0.000000  celldm(6)=   0.000000

     crystal axes: (cart. coord. in units of alat)
               a(1) = (   0.000000   0.707107   0.707107 )
               a(2) = (   0.642824   0.000000   0.642824 )
               a(3) = (   0.642824   0.642824   0.000000 )

     reciprocal axes: (cart. coord. in units 2 pi/alat)
               b(1) = ( -0.707107  0.707107  0.707107 )
               b(2) = (  0.777817 -0.777817  0.777817 )
               b(3) = (  0.777817  0.777817 -0.777817 )

     PseudoPot. # 1 for Ni read from file:
     ./pseudo/ni_pbesol_v1.4.uspp.F.UPF
     MD5 check sum: de937c0c8ae4b350e69c02b76d8a83cb
     Pseudo is Ultrasoft + core correction, Zval = 18.0
     Generated by new atomic code, or converted to UPF format
     Using radial grid of  865 points,  6 beta functions with:
                l(1) =   0
                l(2) =   0
                l(3) =   1
                l(4) =   1
                l(5) =   2
                l(6) =   2
     Q(r) pseudized with 10 coefficients,  rinner =    0.980   0.980   0.980
                                                       0.980   0.980

     PseudoPot. # 2 for O  read from file:
     ./pseudo/O.pbesol-n-kjpaw_psl.0.1.UPF
     MD5 check sum: 81d73d1479e654e5638b0319f0d6c2c7
     Pseudo is Projector augmented-wave + core cor, Zval =  6.0
     Generated using "atomic" code by A. Dal Corso  v.6.0 svn rev. 13079
     Shape of augmentation charge: BESSEL
     Using radial grid of 1095 points,  4 beta functions with:
                l(1) =   0
                l(2) =   0
                l(3) =   1
                l(4) =   1
     Q(r) pseudized with 0 coefficients


     atomic species   valence    mass     pseudopotential
     Ni               18.00    58.69340     Ni( 1.00)
     O                 6.00    15.99940     O ( 1.00)

     Starting magnetic structure
     atomic species   magnetization
     Ni              0.000
     O               0.000

     No symmetry found

   Cartesian axes

     site n.     atom                  positions (alat units)
         1        Ni     tau(   1) = (   0.5384457   0.6591086   0.9061812  )
         2        O      tau(   2) = (   0.5234813   0.5432319   1.0256581  )

     number of k points=     2  Marzari-Vanderbilt smearing, width (Ry)=  0.0275

     Dense  grid:     5905 G-vectors     FFT dimensions: (  27,  25,  25)

     Smooth grid:     2087 G-vectors     FFT dimensions: (  20,  18,  18)

--- MEMORY INFO REMOVED ---

     Initial potential from superposition of free atoms

     starting charge      22.0000, renormalised to      24.0000
     Starting wfcs are   17 randomized atomic wfcs
     Checking if some PAW data can be deallocated...

     total cpu time spent up to now is        0.4 secs

     Self-consistent Calculation

     iteration #  1     ecut=    50.00 Ry     beta= 0.40
     Davidson diagonalization with overlap
     ethr =  1.00E-02,  avg # of iterations =  4.8

     total cpu time spent up to now is        0.5 secs

     total energy              =    -298.68687030 Ry
     estimated scf accuracy    <       1.16540327 Ry

     total magnetization       =     2.00 Bohr mag/cell
     absolute magnetization    =     2.00 Bohr mag/cell

     iteration # 10     ecut=    50.00 Ry     beta= 0.40
     Davidson diagonalization with overlap
     ethr =  3.29E-11,  avg # of iterations =  2.2

     Magnetic moment per site  (integrated on atomic sphere of radius R)
     atom   1 (R=0.069)  charge=  1.0775  magn=  0.0508
     atom   2 (R=0.069)  charge=  0.6853  magn=  0.0255

     total cpu time spent up to now is        1.2 secs

     End of self-consistent calculation

--- OCCUPATIONS REMOVED ---

     the spin up/dw Fermi energies are    64.0601   56.6664 ev

!    total energy              =    -298.55215280 Ry
     estimated scf accuracy    <          2.1E-10 Ry
     smearing contrib. (-TS)   =      -0.00392304 Ry
     internal energy E=F+TS    =    -298.54822976 Ry

     The total energy is F=E-TS. E is the sum of the following terms:
     one-electron contribution =    -217.27276183 Ry
     hartree contribution      =     138.18173871 Ry
     xc contribution           =     -51.25385389 Ry
     ewald contribution        =    -159.01608463 Ry
     one-center paw contrib.   =      -9.18726813 Ry

     total magnetization       =     2.00 Bohr mag/cell
     absolute magnetization    =     2.00 Bohr mag/cell

     convergence has been achieved in  10 iterations

     Forces acting on atoms (cartesian axes, Ry/au):

     atom    1 type  1   force =    27.74138016  218.11623407 -224.72336106
     atom    2 type  2   force =   -27.74138016 -218.11623407  224.72336106

     Total force =   444.623132     Total SCF correction =     0.000121


     Computing stress (Cartesian axis) and pressure

          total   stress  (Ry/bohr**3)                   (kbar)     P=   258877.49
   0.16140762   0.30445301  -0.32929174        23743.88    44786.58   -48440.49
   0.30445301   2.48483925  -2.44945183        44786.58   365532.47  -360326.80
  -0.32929174  -2.44945183   2.63319334       -48440.49  -360326.80   387356.11

     Writing all to output data dir ./out/aiida.save/ :
     XML data file, charge density, pseudopotentials, collected wavefunctions

--- TIMINGS REMOVED ---

     PWSCF        :      1.32s CPU      1.33s WALL


   This run was terminated on:   6: 0:47   6Apr2026

=------------------------------------------------------------------------------=
   JOB DONE.
=------------------------------------------------------------------------------=
