
     Program PROJWFC v.7.5 starts on  1May2026 at  7:10:18

     This program is part of the open-source Quantum ESPRESSO suite

--- Removed: header banner, projection table ---

     PROJWFC      :      0.50s CPU      0.55s WALL

   JOB DONE.
