
     Program PWSCF v.7.3.1 starts on 24Jul2024 at 16:39:13

     This program is part of the open-source Quantum ESPRESSO suite
     for quantum simulation of materials; please cite
         "P. Giannozzi et al., J. Phys.:Condens. Matter 21 395502 (2009);
         "P. Giannozzi et al., J. Phys.:Condens. Matter 29 465901 (2017);
         "P. Giannozzi et al., J. Chem. Phys. 152 154105 (2020);
          URL http://www.quantum-espresso.org",
     in publications or presentations arising from this work. More details at
     http://www.quantum-espresso.org/quote

     Parallel version (MPI), running on    12 processors

     MPI processes distributed on     1 nodes
     35534 MiB available memory on the printing compute node when the environment starts

     Reading input from aiida.in

     Current dimensions of program PWSCF are:
     Max number of different atomic species (ntypx) = 10
     Max number of k-points (npk) =  40000
     Max angular momentum in pseudopotentials (lmaxx) =  4
     Message from routine setup:
     using ibrav=0 with symmetry is DISCOURAGED, use correct ibrav instead

     K-points division:     npool     =       3
     R & G space division:  proc/nbgrp/npool/nimage =       4
     Subspace diagonalization in iterative solution of the eigenvalue problem:
     a serial algorithm will be used


     Parallelization info
     --------------------
     sticks:   dense  smooth     PW     G-vecs:    dense   smooth      PW
     Min         219     109     37                 4315     1545     284
     Max         220     110     38                 4316     1546     285
     Sum         877     439    151                17261     6183    1139

     Using Slab Decomposition



     bravais-lattice index     =            0
     lattice parameter (alat)  =       7.3075  a.u.
     unit-cell volume          =     275.9279 (a.u.)^3
     number of atoms/cell      =            2
     number of atomic types    =            1
     number of electrons       =         8.00
     number of Kohn-Sham states=            8
     kinetic-energy cutoff     =      30.0000  Ry
     charge density cutoff     =     240.0000  Ry
     scf convergence threshold =      8.0E-10
     mixing beta               =       0.4000
     number of iterations used =            8  plain     mixing
     energy convergence thresh.=      2.0E-04
     force convergence thresh. =      1.0E-03
     press convergence thresh. =      5.0E-01
     Exchange-correlation= PBESOL
                           (   1   4  10   8   0   0   0)
     nstep                     =           50


     celldm(1)=   7.307523  celldm(2)=   0.000000  celldm(3)=   0.000000
     celldm(4)=   0.000000  celldm(5)=   0.000000  celldm(6)=   0.000000

     crystal axes: (cart. coord. in units of alat)
               a(1) = (   1.000000   0.000000   0.000000 )
               a(2) = (   0.500000   0.866025   0.000000 )
               a(3) = (   0.500000   0.288675   0.816497 )

     reciprocal axes: (cart. coord. in units 2 pi/alat)
               b(1) = (  1.000000 -0.577350 -0.408248 )
               b(2) = (  0.000000  1.154701 -0.408248 )
               b(3) = (  0.000000  0.000000  1.224745 )


     PseudoPot. # 1 for Si read from file:
     ./pseudo/Si.pbesol-n-rrkjus_psl.1.0.0.UPF
     MD5 check sum: c4212819de858c94c3a1644338846ac9
     Pseudo is Ultrasoft + core correction, Zval =  4.0
     Generated using "atomic" code by A. Dal Corso  v.6.0 svn rev. 13079
     Using radial grid of 1141 points,  6 beta functions with:
                l(1) =   0
                l(2) =   0
                l(3) =   1
                l(4) =   1
                l(5) =   2
                l(6) =   2
     Q(r) pseudized with 0 coefficients


     atomic species   valence    mass     pseudopotential
     Si                4.00    28.08500     Si( 1.00)

     12 Sym. Ops., with inversion, found ( 6 have fractional translation)


                                    s                        frac. trans.

      isym =  1     identity

 cryst.   s( 1) = (     1          0          0      )
                  (     0          1          0      )
                  (     0          0          1      )

 cart.    s( 1) = (  1.0000000  0.0000000  0.0000000 )
                  (  0.0000000  1.0000000  0.0000000 )
                  (  0.0000000  0.0000000  1.0000000 )


      isym =  2     180 deg rotation - cart. axis [1,0,0]

 cryst.   s( 2) = (     1          0          0      )    f =( -0.2500000 )
                  (     1         -1          0      )       ( -0.2500000 )
                  (     1          0         -1      )       ( -0.2500000 )

 cart.    s( 2) = (  1.0000000  0.0000000  0.0000000 )    f =( -0.5000000 )
                  (  0.0000000 -1.0000000  0.0000000 )       ( -0.2886751 )
                  (  0.0000000  0.0000000 -1.0000000 )       ( -0.2041241 )


      isym =  3     120 deg rotation - cryst. axis [0,0,1]

 cryst.   s( 3) = (    -1          1          0      )
                  (    -1          0          0      )
                  (    -1          0          1      )

 cart.    s( 3) = ( -0.5000000 -0.8660254  0.0000000 )
                  (  0.8660254 -0.5000000  0.0000000 )
                  (  0.0000000  0.0000000  1.0000000 )


      isym =  4     120 deg rotation - cryst. axis [0,0,-1]

 cryst.   s( 4) = (     0         -1          0      )
                  (     1         -1          0      )
                  (     0         -1          1      )

 cart.    s( 4) = ( -0.5000000  0.8660254 -0.0000000 )
                  ( -0.8660254 -0.5000000  0.0000000 )
                  (  0.0000000  0.0000000  1.0000000 )


      isym =  5     180 deg rotation - cryst. axis [0,1,0]

 cryst.   s( 5) = (     0         -1          0      )    f =( -0.2500000 )
                  (    -1          0          0      )       ( -0.2500000 )
                  (     0          0         -1      )       ( -0.2500000 )

 cart.    s( 5) = ( -0.5000000 -0.8660254  0.0000000 )    f =( -0.5000000 )
                  ( -0.8660254  0.5000000 -0.0000000 )       ( -0.2886751 )
                  (  0.0000000  0.0000000 -1.0000000 )       ( -0.2041241 )


      isym =  6     180 deg rotation - cryst. axis [1,1,0]

 cryst.   s( 6) = (    -1          1          0      )    f =( -0.2500000 )
                  (     0          1          0      )       ( -0.2500000 )
                  (     0          1         -1      )       ( -0.2500000 )

 cart.    s( 6) = ( -0.5000000  0.8660254 -0.0000000 )    f =( -0.5000000 )
                  (  0.8660254  0.5000000 -0.0000000 )       ( -0.2886751 )
                  (  0.0000000  0.0000000 -1.0000000 )       ( -0.2041241 )


      isym =  7     inversion

 cryst.   s( 7) = (    -1          0          0      )    f =( -0.2500000 )
                  (     0         -1          0      )       ( -0.2500000 )
                  (     0          0         -1      )       ( -0.2500000 )

 cart.    s( 7) = ( -1.0000000  0.0000000  0.0000000 )    f =( -0.5000000 )
                  (  0.0000000 -1.0000000  0.0000000 )       ( -0.2886751 )
                  (  0.0000000  0.0000000 -1.0000000 )       ( -0.2041241 )


      isym =  8     inv. 180 deg rotation - cart. axis [1,0,0]

 cryst.   s( 8) = (    -1          0          0      )
                  (    -1          1          0      )
                  (    -1          0          1      )

 cart.    s( 8) = ( -1.0000000  0.0000000  0.0000000 )
                  (  0.0000000  1.0000000  0.0000000 )
                  (  0.0000000  0.0000000  1.0000000 )


      isym =  9     inv. 120 deg rotation - cryst. axis [0,0,1]

 cryst.   s( 9) = (     1         -1          0      )    f =( -0.2500000 )
                  (     1          0          0      )       ( -0.2500000 )
                  (     1          0         -1      )       ( -0.2500000 )

 cart.    s( 9) = (  0.5000000  0.8660254 -0.0000000 )    f =( -0.5000000 )
                  ( -0.8660254  0.5000000 -0.0000000 )       ( -0.2886751 )
                  (  0.0000000  0.0000000 -1.0000000 )       ( -0.2041241 )


      isym = 10     inv. 120 deg rotation - cryst. axis [0,0,-1]

 cryst.   s(10) = (     0          1          0      )    f =( -0.2500000 )
                  (    -1          1          0      )       ( -0.2500000 )
                  (     0          1         -1      )       ( -0.2500000 )

 cart.    s(10) = (  0.5000000 -0.8660254  0.0000000 )    f =( -0.5000000 )
                  (  0.8660254  0.5000000 -0.0000000 )       ( -0.2886751 )
                  (  0.0000000  0.0000000 -1.0000000 )       ( -0.2041241 )


      isym = 11     inv. 180 deg rotation - cryst. axis [0,1,0]

 cryst.   s(11) = (     0          1          0      )
                  (     1          0          0      )
                  (     0          0          1      )

 cart.    s(11) = (  0.5000000  0.8660254 -0.0000000 )
                  (  0.8660254 -0.5000000  0.0000000 )
                  (  0.0000000  0.0000000  1.0000000 )


      isym = 12     inv. 180 deg rotation - cryst. axis [1,1,0]

 cryst.   s(12) = (     1         -1          0      )
                  (     0         -1          0      )
                  (     0         -1          1      )

 cart.    s(12) = (  0.5000000 -0.8660254  0.0000000 )
                  ( -0.8660254 -0.5000000  0.0000000 )
                  (  0.0000000  0.0000000  1.0000000 )


   Cartesian axes

     site n.     atom                  positions (alat units)
         1        Si     tau(   1) = (   1.5000000   0.8660254   0.6123724  )
         2        Si     tau(   2) = (   1.0000000   0.5773503   0.4082483  )

   Crystallographic axes

     site n.     atom                  positions (cryst. coord.)
         1        Si     tau(   1) = (  0.7500000  0.7500000  0.7500000  )
         2        Si     tau(   2) = (  0.5000000  0.5000000  0.5000000  )

     number of k points=    13  Marzari-Vanderbilt smearing, width (Ry)=  0.0100
                       cart. coord. in units 2pi/alat
        k(    1) = (   0.0000000   0.0000000   0.0000000), wk =   0.0312500
        k(    2) = (   0.0000000   0.0000000   0.3061862), wk =   0.0625000
        k(    3) = (   0.0000000   0.0000000  -0.6123724), wk =   0.0312500
        k(    4) = (   0.0000000   0.2886751  -0.1020621), wk =   0.1875000
        k(    5) = (   0.0000000   0.2886751   0.2041241), wk =   0.1875000
        k(    6) = (   0.0000000   0.2886751  -0.7144345), wk =   0.1875000
        k(    7) = (   0.0000000   0.2886751  -0.4082483), wk =   0.1875000
        k(    8) = (   0.0000000  -0.5773503   0.2041241), wk =   0.0937500
        k(    9) = (   0.0000000  -0.5773503   0.5103104), wk =   0.1875000
        k(   10) = (   0.0000000  -0.5773503  -0.4082483), wk =   0.0937500
        k(   11) = (   0.2500000  -0.7216878   0.1020621), wk =   0.3750000
        k(   12) = (   0.2500000  -0.7216878   0.4082483), wk =   0.1875000
        k(   13) = (   0.2500000  -0.7216878  -0.2041241), wk =   0.1875000

                       cryst. coord.
        k(    1) = (   0.0000000   0.0000000   0.0000000), wk =   0.0312500
        k(    2) = (   0.0000000   0.0000000   0.2500000), wk =   0.0625000
        k(    3) = (   0.0000000   0.0000000  -0.5000000), wk =   0.0312500
        k(    4) = (   0.0000000   0.2500000   0.0000000), wk =   0.1875000
        k(    5) = (   0.0000000   0.2500000   0.2500000), wk =   0.1875000
        k(    6) = (   0.0000000   0.2500000  -0.5000000), wk =   0.1875000
        k(    7) = (   0.0000000   0.2500000  -0.2500000), wk =   0.1875000
        k(    8) = (   0.0000000  -0.5000000   0.0000000), wk =   0.0937500
        k(    9) = (   0.0000000  -0.5000000   0.2500000), wk =   0.1875000
        k(   10) = (   0.0000000  -0.5000000  -0.5000000), wk =   0.0937500
        k(   11) = (   0.2500000  -0.5000000   0.0000000), wk =   0.3750000
        k(   12) = (   0.2500000  -0.5000000   0.2500000), wk =   0.1875000
        k(   13) = (   0.2500000  -0.5000000  -0.2500000), wk =   0.1875000

     Dense  grid:    17261 G-vectors     FFT dimensions: (  40,  40,  40)

     Smooth grid:     6183 G-vectors     FFT dimensions: (  32,  32,  32)

     Dynamical RAM for                 wfc:       0.02 MB

     Dynamical RAM for     wfc (w. buffer):       0.14 MB

     Dynamical RAM for           str. fact:       0.07 MB

     Dynamical RAM for           local pot:       0.00 MB

     Dynamical RAM for          nlocal pot:       0.10 MB

     Dynamical RAM for                qrad:       2.49 MB

     Dynamical RAM for          rho,v,vnew:       0.56 MB

     Dynamical RAM for               rhoin:       0.19 MB

     Dynamical RAM for            rho*nmix:       1.05 MB

     Dynamical RAM for           G-vectors:       0.26 MB

     Dynamical RAM for          h,s,v(r/c):       0.01 MB

     Dynamical RAM for          <psi|beta>:       0.00 MB

     Dynamical RAM for                 psi:       0.05 MB

     Dynamical RAM for                hpsi:       0.05 MB

     Dynamical RAM for                spsi:       0.05 MB

     Dynamical RAM for      wfcinit/wfcrot:       0.05 MB

     Dynamical RAM for           addusdens:       4.17 MB

     Dynamical RAM for          addusforce:       4.21 MB

     Dynamical RAM for         addusstress:       4.43 MB

     Estimated static dynamical RAM per process >       4.55 MB

     Estimated max dynamical RAM per process >      10.04 MB

     Estimated total dynamical RAM >     112.02 MB

     Initial potential from superposition of free atoms

     starting charge       7.9989, renormalised to       8.0000
     Starting wfcs are    8 randomized atomic wfcs

     total cpu time spent up to now is        0.4 secs

     Self-consistent Calculation

     iteration #  1     ecut=    30.00 Ry     beta= 0.40
     Davidson diagonalization with overlap

---- Real-time Memory Report at c_bands before calling an iterative solver
           102 MiB given to the printing process from OS
             0 MiB allocation reported by mallinfo(arena+hblkhd)
         35243 MiB available memory on the node where the printing process lives
------------------
     ethr =  1.00E-02,  avg # of iterations =  3.6

     Threshold (ethr) on eigenvalues was too large:
     Diagonalizing with lowered threshold

     Davidson diagonalization with overlap

---- Real-time Memory Report at c_bands before calling an iterative solver
           109 MiB given to the printing process from OS
             0 MiB allocation reported by mallinfo(arena+hblkhd)
         35231 MiB available memory on the node where the printing process lives
------------------
     ethr =  6.79E-04,  avg # of iterations =  1.7

     total cpu time spent up to now is        0.5 secs

     total energy              =     -22.66564781 Ry
     estimated scf accuracy    <       0.05850370 Ry

     iteration #  2     ecut=    30.00 Ry     beta= 0.40
     Davidson diagonalization with overlap

---- Real-time Memory Report at c_bands before calling an iterative solver
           109 MiB given to the printing process from OS
             0 MiB allocation reported by mallinfo(arena+hblkhd)
         35227 MiB available memory on the node where the printing process lives
------------------
     ethr =  7.31E-04,  avg # of iterations =  1.0

     total cpu time spent up to now is        0.5 secs

     WARNING: integrated charge=     8.00002111, expected=     8.00000000

     total energy              =     -22.66198083 Ry
     estimated scf accuracy    <       0.01627960 Ry

     iteration #  3     ecut=    30.00 Ry     beta= 0.40
     Davidson diagonalization with overlap

---- Real-time Memory Report at c_bands before calling an iterative solver
           110 MiB given to the printing process from OS
             0 MiB allocation reported by mallinfo(arena+hblkhd)
         35226 MiB available memory on the node where the printing process lives
------------------
     ethr =  2.03E-04,  avg # of iterations =  1.5

     total cpu time spent up to now is        0.6 secs

     WARNING: integrated charge=     8.00078523, expected=     8.00000000

     total energy              =     -22.66258880 Ry
     estimated scf accuracy    <       0.00025387 Ry

     iteration #  4     ecut=    30.00 Ry     beta= 0.40
     Davidson diagonalization with overlap

---- Real-time Memory Report at c_bands before calling an iterative solver
           110 MiB given to the printing process from OS
             0 MiB allocation reported by mallinfo(arena+hblkhd)
         35226 MiB available memory on the node where the printing process lives
------------------
     ethr =  3.17E-06,  avg # of iterations =  5.5

     total cpu time spent up to now is        0.7 secs

     WARNING: integrated charge=     8.00070298, expected=     8.00000000

     total energy              =     -22.66281125 Ry
     estimated scf accuracy    <       0.00000803 Ry

     iteration #  5     ecut=    30.00 Ry     beta= 0.40
     Davidson diagonalization with overlap

---- Real-time Memory Report at c_bands before calling an iterative solver
           110 MiB given to the printing process from OS
             0 MiB allocation reported by mallinfo(arena+hblkhd)
         35226 MiB available memory on the node where the printing process lives
------------------
     ethr =  1.00E-07,  avg # of iterations =  1.8

     total cpu time spent up to now is        0.7 secs

     WARNING: integrated charge=     8.00060768, expected=     8.00000000

     total energy              =     -22.66279546 Ry
     estimated scf accuracy    <       0.00000021 Ry

     iteration #  6     ecut=    30.00 Ry     beta= 0.40
     Davidson diagonalization with overlap

---- Real-time Memory Report at c_bands before calling an iterative solver
           110 MiB given to the printing process from OS
             0 MiB allocation reported by mallinfo(arena+hblkhd)
         35226 MiB available memory on the node where the printing process lives
------------------
     ethr =  2.57E-09,  avg # of iterations =  3.0

     total cpu time spent up to now is        0.8 secs

     WARNING: integrated charge=     8.00059538, expected=     8.00000000

     total energy              =     -22.66279684 Ry
     estimated scf accuracy    <       0.00000005 Ry

     iteration #  7     ecut=    30.00 Ry     beta= 0.40
     Davidson diagonalization with overlap

---- Real-time Memory Report at c_bands before calling an iterative solver
           110 MiB given to the printing process from OS
             0 MiB allocation reported by mallinfo(arena+hblkhd)
         35226 MiB available memory on the node where the printing process lives
------------------
     ethr =  6.26E-10,  avg # of iterations =  1.8

     total cpu time spent up to now is        0.8 secs

     End of self-consistent calculation

          k = 0.0000 0.0000 0.0000 (   749 PWs)   bands (ev):

    -5.8726   5.9839   5.9839   5.9839   8.4768   8.4768   8.4768   9.0582

     occupation numbers
     1.0000   1.0035   1.0035   1.0035   0.0000   0.0000   0.0000   0.0000

          k = 0.0000 0.0000 0.3062 (   769 PWs)   bands (ev):

    -5.0839   2.0609   5.2277   5.2277   7.8609   9.4114   9.4115  12.6530

     occupation numbers
     1.0000   1.0000   1.0000   1.0000   0.0000   0.0000   0.0000   0.0000

          k = 0.0000 0.0000-0.6124 (   778 PWs)   bands (ev):

    -3.5731  -0.9466   4.7933   4.7933   7.3647   9.2499   9.2499  13.4562

     occupation numbers
     1.0000   1.0000   1.0000   1.0000   0.0000   0.0000   0.0000   0.0000

          k = 0.0000 0.2887-0.1021 (   769 PWs)   bands (ev):

    -5.0839   2.0609   5.2277   5.2277   7.8609   9.4114   9.4114  12.6530

     occupation numbers
     1.0000   1.0000   1.0000   1.0000   0.0000   0.0000   0.0000   0.0000

          k = 0.0000 0.2887 0.2041 (   769 PWs)   bands (ev):

    -4.8056   2.4561   4.1055   4.1055   7.0216   8.9959  11.6317  11.6318

     occupation numbers
     1.0000   1.0000   1.0000   1.0000   0.0000   0.0000   0.0000   0.0000

          k = 0.0000 0.2887-0.7144 (   763 PWs)   bands (ev):

    -3.1920  -0.3694   2.4600   3.7942   7.4032  10.3157  11.5671  11.7981

     occupation numbers
     1.0000   1.0000   1.0000   1.0000   0.0000   0.0000   0.0000   0.0000

          k = 0.0000 0.2887-0.4082 (   762 PWs)   bands (ev):

    -3.8569   0.5214   2.2444   4.6644   8.3212  10.6710  10.9921  11.9277

     occupation numbers
     1.0000   1.0000   1.0000   1.0000   0.0000   0.0000   0.0000   0.0000

          k = 0.0000-0.5774 0.2041 (   778 PWs)   bands (ev):

    -3.5731  -0.9466   4.7933   4.7933   7.3647   9.2499   9.2499  13.4562

     occupation numbers
     1.0000   1.0000   1.0000   1.0000   0.0000   0.0000   0.0000   0.0000

          k = 0.0000-0.5774 0.5103 (   763 PWs)   bands (ev):

    -3.1920  -0.3694   2.4600   3.7942   7.4032  10.3157  11.5671  11.7981

     occupation numbers
     1.0000   1.0000   1.0000   1.0000   0.0000   0.0000   0.0000   0.0000

          k = 0.0000-0.5774-0.4082 (   774 PWs)   bands (ev):

    -1.7857  -1.7857   3.1531   3.1531   6.5974   6.5974  15.8513  15.8513

     occupation numbers
     1.0000   1.0000   1.0000   1.0000   0.0014   0.0014   0.0000   0.0000

          k = 0.2500-0.7217 0.1021 (   763 PWs)   bands (ev):

    -3.1920  -0.3694   2.4600   3.7942   7.4032  10.3157  11.5671  11.7981

     occupation numbers
     1.0000   1.0000   1.0000   1.0000   0.0000   0.0000   0.0000   0.0000

          k = 0.2500-0.7217 0.4082 (   762 PWs)   bands (ev):

    -3.8569   0.5214   2.2444   4.6644   8.3212  10.6710  10.9921  11.9277

     occupation numbers
     1.0000   1.0000   1.0000   1.0000   0.0000   0.0000   0.0000   0.0000

          k = 0.2500-0.7217-0.2041 (   744 PWs)   bands (ev):

    -1.6240  -1.6240   2.1490   2.1490  10.1503  10.1503  10.8414  10.8414

     occupation numbers
     1.0000   1.0000   1.0000   1.0000   0.0000   0.0000   0.0000   0.0000

     the Fermi energy is     6.3641 ev

     WARNING: integrated charge=     8.00060120, expected=     8.00000000

!    total energy              =     -22.66279927 Ry
     estimated scf accuracy    <          1.5E-10 Ry
     smearing contrib. (-TS)   =       0.00000489 Ry
     internal energy E=F+TS    =     -22.66280417 Ry

     The total energy is F=E-TS. E is the sum of the following terms:
     one-electron contribution =       5.01865204 Ry
     hartree contribution      =       1.12199684 Ry
     xc contribution           =     -12.12347470 Ry
     ewald contribution        =     -16.67997834 Ry

     convergence has been achieved in   7 iterations

     Forces acting on atoms (cartesian axes, Ry/au):

     atom    1 type  1   force =     0.00000000    0.00000000   -0.00000092
     atom    2 type  1   force =     0.00000000    0.00000000    0.00000092
     The non-local contrib.  to forces
     atom    1 type  1   force =     0.00000000    0.00000000   -0.00000151
     atom    2 type  1   force =     0.00000000   -0.00000000    0.00000151
     The ionic contribution  to forces
     atom    1 type  1   force =    -0.00000000   -0.00000000    0.00000000
     atom    2 type  1   force =     0.00000000    0.00000000   -0.00000000
     The local contribution  to forces
     atom    1 type  1   force =    -0.00000000    0.00000000    0.00000089
     atom    2 type  1   force =    -0.00000000    0.00000000   -0.00000089
     The core correction contribution to forces
     atom    1 type  1   force =    -0.00000000   -0.00000000    0.00000008
     atom    2 type  1   force =    -0.00000000   -0.00000000   -0.00000008
     The Hubbard contrib.    to forces
     atom    1 type  1   force =     0.00000000    0.00000000    0.00000000
     atom    2 type  1   force =     0.00000000    0.00000000    0.00000000
     The SCF correction term to forces
     atom    1 type  1   force =    -0.00000000   -0.00000000   -0.00000039
     atom    2 type  1   force =     0.00000000    0.00000000    0.00000039

     Total force =     0.000001     Total SCF correction =     0.000001
     SCF correction compared to forces is large: reduce conv_thr to get better values


     Computing stress (Cartesian axis) and pressure

          total   stress  (Ry/bohr**3)                   (kbar)     P=      -11.77
  -0.00008004   0.00000000  -0.00000000          -11.77        0.00       -0.00
   0.00000000  -0.00008004   0.00000000            0.00      -11.77        0.00
   0.00000000   0.00000000  -0.00008004            0.00        0.00      -11.77

     kinetic stress (kbar)   2158.74      0.00      0.00
                                0.00   2158.74     -0.00
                                0.00     -0.00   2158.74

     local   stress (kbar)     12.08      0.00      0.00
                                0.00     12.08      0.00
                                0.00      0.00     12.08

     nonloc. stress (kbar)   1579.34     -0.00      0.00
                               -0.00   1579.34     -0.00
                                0.00     -0.00   1579.34

     hartree stress (kbar)    199.39     -0.00     -0.00
                               -0.00    199.39      0.00
                               -0.00      0.00    199.39

     exc-cor stress (kbar)   2850.74     -0.00     -0.00
                               -0.00   2850.74     -0.00
                               -0.00     -0.00   2850.74

     corecor stress (kbar)  -3847.88      0.00     -0.00
                                0.00  -3847.88      0.00
                               -0.00      0.00  -3847.88

     ewald   stress (kbar)  -2964.19      0.00      0.00
                                0.00  -2964.19     -0.00
                                0.00     -0.00  -2964.19

     hubbard stress (kbar)      0.00      0.00      0.00
                                0.00      0.00      0.00
                                0.00      0.00      0.00

     DFT-D   stress (kbar)      0.00      0.00      0.00
                                0.00      0.00      0.00
                                0.00      0.00      0.00

     XDM     stress (kbar)      0.00      0.00      0.00
                                0.00      0.00      0.00
                                0.00      0.00      0.00

     dft-nl  stress (kbar)      0.00      0.00      0.00
                                0.00      0.00      0.00
                                0.00      0.00      0.00

     TS-vdW  stress (kbar)      0.00      0.00      0.00
                                0.00      0.00      0.00
                                0.00      0.00      0.00

     MDB     stress (kbar)      0.00      0.00      0.00
                                0.00      0.00      0.00
                                0.00      0.00      0.00

     3D-RISM stress (kbar)      0.00      0.00      0.00
                                0.00      0.00      0.00
                                0.00      0.00      0.00


     BFGS Geometry Optimization
     Energy error            =      1.3E-04 Ry
     Gradient error          =      9.2E-07 Ry/Bohr
     Cell gradient error     =      1.2E+01 kbar

     number of scf cycles    =   1
     number of bfgs steps    =   0

     enthalpy           new  =     -22.6627992744 Ry

     new trust radius        =       0.0066480062 bohr
     new conv_thr            =       0.0000000008 Ry

     new unit-cell volume =    274.27476 a.u.^3 (    40.64333 Ang^3 )
     density =      2.29490 g/cm^3

CELL_PARAMETERS (angstrom)
   3.859236539  -0.000000000   0.000000000
   1.929618269   3.342196882   0.000000000
   1.929618269   1.114065627   3.151053816

ATOMIC_POSITIONS (angstrom)
Si               5.7888548084        3.3421968820        2.3632898762
Si               3.8592365390        2.2281312546        1.5755273931



     Writing config-only to output data dir ./out/aiida.save/ :
     XML data file
     NEW-OLD atomic charge density approx. for the potential
     New effective cutoffs (rho, wfc):  240.49   30.06
     extrapolated charge    8.00060, renormalised to    8.00000

     total cpu time spent up to now is        1.0 secs

     Self-consistent Calculation

     iteration #  1     ecut=    30.00 Ry     beta= 0.40
     Davidson diagonalization with overlap

---- Real-time Memory Report at c_bands before calling an iterative solver
           111 MiB given to the printing process from OS
             0 MiB allocation reported by mallinfo(arena+hblkhd)
         35195 MiB available memory on the node where the printing process lives
------------------
     ethr =  1.00E-06,  avg # of iterations =  2.1

     Threshold (ethr) on eigenvalues was too large:
     Diagonalizing with lowered threshold

     Davidson diagonalization with overlap

---- Real-time Memory Report at c_bands before calling an iterative solver
           112 MiB given to the printing process from OS
             0 MiB allocation reported by mallinfo(arena+hblkhd)
         35195 MiB available memory on the node where the printing process lives
------------------
     ethr =  2.68E-08,  avg # of iterations =  3.2

     total cpu time spent up to now is        1.0 secs

     WARNING: integrated charge=     8.00028103, expected=     8.00000000

     total energy              =     -22.66285336 Ry
     estimated scf accuracy    <       0.00000172 Ry

     iteration #  2     ecut=    30.00 Ry     beta= 0.40
     Davidson diagonalization with overlap

---- Real-time Memory Report at c_bands before calling an iterative solver
           112 MiB given to the printing process from OS
             0 MiB allocation reported by mallinfo(arena+hblkhd)
         35272 MiB available memory on the node where the printing process lives
------------------
     ethr =  2.15E-08,  avg # of iterations =  1.0

     total cpu time spent up to now is        1.1 secs

     WARNING: integrated charge=     8.00062814, expected=     8.00000000

     total energy              =     -22.66284852 Ry
     estimated scf accuracy    <       0.00000044 Ry

     iteration #  3     ecut=    30.00 Ry     beta= 0.40
     Davidson diagonalization with overlap

---- Real-time Memory Report at c_bands before calling an iterative solver
           112 MiB given to the printing process from OS
             0 MiB allocation reported by mallinfo(arena+hblkhd)
         35273 MiB available memory on the node where the printing process lives
------------------
     ethr =  5.53E-09,  avg # of iterations =  2.0

     total cpu time spent up to now is        1.1 secs

     WARNING: integrated charge=     8.00071091, expected=     8.00000000

     total energy              =     -22.66284212 Ry
     estimated scf accuracy    <          9.6E-09 Ry

     iteration #  4     ecut=    30.00 Ry     beta= 0.40
     Davidson diagonalization with overlap

---- Real-time Memory Report at c_bands before calling an iterative solver
           112 MiB given to the printing process from OS
             0 MiB allocation reported by mallinfo(arena+hblkhd)
         35273 MiB available memory on the node where the printing process lives
------------------
     ethr =  1.20E-10,  avg # of iterations =  2.3

     total cpu time spent up to now is        1.2 secs

     WARNING: integrated charge=     8.00072709, expected=     8.00000000

     total energy              =     -22.66284488 Ry
     estimated scf accuracy    <       0.00000002 Ry

     iteration #  5     ecut=    30.00 Ry     beta= 0.40
     Davidson diagonalization with overlap

---- Real-time Memory Report at c_bands before calling an iterative solver
           112 MiB given to the printing process from OS
             0 MiB allocation reported by mallinfo(arena+hblkhd)
         35273 MiB available memory on the node where the printing process lives
------------------
     ethr =  1.20E-10,  avg # of iterations =  2.0

     total cpu time spent up to now is        1.2 secs

     End of self-consistent calculation

          k = 0.0000 0.0000 0.0000 (   749 PWs)   bands (ev):

    -5.8516   6.0459   6.0459   6.0459   8.5412   8.5412   8.5412   9.1876

     occupation numbers
     1.0000   1.0043   1.0043   1.0043   0.0000   0.0000   0.0000   0.0000

          k =-0.0000-0.0000 0.3068 (   769 PWs)   bands (ev):

    -5.0587   2.1120   5.2858   5.2858   7.9436   9.4783   9.4783  12.7630

     occupation numbers
     1.0000   1.0000   1.0000   1.0000   0.0000   0.0000   0.0000   0.0000

          k = 0.0000 0.0000-0.6136 (   778 PWs)   bands (ev):

    -3.5370  -0.9126   4.8499   4.8499   7.4477   9.3094   9.3094  13.5259

     occupation numbers
     1.0000   1.0000   1.0000   1.0000   0.0000   0.0000   0.0000   0.0000

          k = 0.0000 0.2893-0.1023 (   769 PWs)   bands (ev):

    -5.0587   2.1120   5.2857   5.2858   7.9436   9.4783   9.4783  12.7630

     occupation numbers
     1.0000   1.0000   1.0000   1.0000   0.0000   0.0000   0.0000   0.0000

          k =-0.0000 0.2893 0.2045 (   769 PWs)   bands (ev):

    -4.7791   2.5193   4.1562   4.1562   7.0780   9.0574  11.7133  11.7133

     occupation numbers
     1.0000   1.0000   1.0000   1.0000   0.0000   0.0000   0.0000   0.0000

          k = 0.0000 0.2893-0.7159 (   763 PWs)   bands (ev):

    -3.1556  -0.3235   2.5023   3.8439   7.4593  10.3825  11.6580  11.8724

     occupation numbers
     1.0000   1.0000   1.0000   1.0000   0.0000   0.0000   0.0000   0.0000

          k = 0.0000 0.2893-0.4091 (   762 PWs)   bands (ev):

    -3.8246   0.5726   2.2833   4.7195   8.3871  10.7451  11.0683  12.0207

     occupation numbers
     1.0000   1.0000   1.0000   1.0000   0.0000   0.0000   0.0000   0.0000

          k =-0.0000-0.5785 0.2045 (   778 PWs)   bands (ev):

    -3.5370  -0.9126   4.8499   4.8499   7.4477   9.3094   9.3094  13.5259

     occupation numbers
     1.0000   1.0000   1.0000   1.0000   0.0000   0.0000   0.0000   0.0000

          k =-0.0000-0.5785 0.5113 (   763 PWs)   bands (ev):

    -3.1556  -0.3235   2.5023   3.8439   7.4593  10.3825  11.6580  11.8724

     occupation numbers
     1.0000   1.0000   1.0000   1.0000   0.0000   0.0000   0.0000   0.0000

          k = 0.0000-0.5785-0.4091 (   774 PWs)   bands (ev):

    -1.7430  -1.7430   3.1992   3.1992   6.6478   6.6478  15.9640  15.9640

     occupation numbers
     1.0000   1.0000   1.0000   1.0000   0.0017   0.0017   0.0000   0.0000

          k = 0.2505-0.7231 0.1023 (   763 PWs)   bands (ev):

    -3.1556  -0.3235   2.5023   3.8439   7.4593  10.3825  11.6580  11.8724

     occupation numbers
     1.0000   1.0000   1.0000   1.0000   0.0000   0.0000   0.0000   0.0000

          k = 0.2505-0.7231 0.4091 (   762 PWs)   bands (ev):

    -3.8246   0.5726   2.2833   4.7195   8.3871  10.7451  11.0683  12.0207

     occupation numbers
     1.0000   1.0000   1.0000   1.0000   0.0000   0.0000   0.0000   0.0000

          k = 0.2505-0.7231-0.2045 (   744 PWs)   bands (ev):

    -1.5786  -1.5786   2.1855   2.1855  10.2120  10.2120  10.9245  10.9245

     occupation numbers
     1.0000   1.0000   1.0000   1.0000   0.0000   0.0000   0.0000   0.0000

     the Fermi energy is     6.4194 ev

     WARNING: integrated charge=     8.00072346, expected=     8.00000000

!    total energy              =     -22.66284342 Ry
     estimated scf accuracy    <          2.0E-10 Ry
     smearing contrib. (-TS)   =       0.00000593 Ry
     internal energy E=F+TS    =     -22.66284935 Ry

     The total energy is F=E-TS. E is the sum of the following terms:
     one-electron contribution =       5.06484499 Ry
     hartree contribution      =       1.11681435 Ry
     xc contribution           =     -12.13108618 Ry
     ewald contribution        =     -16.71342250 Ry

     convergence has been achieved in   5 iterations

     Forces acting on atoms (cartesian axes, Ry/au):

     atom    1 type  1   force =    -0.00000000   -0.00000000    0.00000057
     atom    2 type  1   force =     0.00000000    0.00000000   -0.00000057
     The non-local contrib.  to forces
     atom    1 type  1   force =    -0.00000000   -0.00000000    0.00000038
     atom    2 type  1   force =     0.00000000   -0.00000000   -0.00000038
     The ionic contribution  to forces
     atom    1 type  1   force =     0.00000000   -0.00000000    0.00000131
     atom    2 type  1   force =     0.00000000    0.00000000   -0.00000131
     The local contribution  to forces
     atom    1 type  1   force =    -0.00000000    0.00000000   -0.00000107
     atom    2 type  1   force =    -0.00000000    0.00000000    0.00000107
     The core correction contribution to forces
     atom    1 type  1   force =    -0.00000000   -0.00000000   -0.00000005
     atom    2 type  1   force =    -0.00000000   -0.00000000    0.00000005
     The Hubbard contrib.    to forces
     atom    1 type  1   force =     0.00000000    0.00000000    0.00000000
     atom    2 type  1   force =     0.00000000    0.00000000    0.00000000
     The SCF correction term to forces
     atom    1 type  1   force =    -0.00000000   -0.00000000   -0.00000000
     atom    2 type  1   force =    -0.00000000   -0.00000000    0.00000000

     Total force =     0.000001     Total SCF correction =     0.000000


     Computing stress (Cartesian axis) and pressure

          total   stress  (Ry/bohr**3)                   (kbar)     P=       -6.28
  -0.00004266  -0.00000000   0.00000000           -6.27       -0.00        0.00
   0.00000000  -0.00004266   0.00000000            0.00       -6.27        0.00
   0.00000000   0.00000000  -0.00004266            0.00        0.00       -6.28

     kinetic stress (kbar)   2177.24     -0.00     -0.00
                               -0.00   2177.24     -0.00
                               -0.00     -0.00   2177.24

     local   stress (kbar)     18.44      0.00      0.00
                                0.00     18.44      0.00
                                0.00      0.00     18.45

     nonloc. stress (kbar)   1590.97     -0.00     -0.00
                               -0.00   1590.97     -0.00
                               -0.00     -0.00   1590.97

     hartree stress (kbar)    199.67     -0.00     -0.00
                               -0.00    199.67      0.00
                               -0.00      0.00    199.66

     exc-cor stress (kbar)   2867.00      0.00     -0.00
                                0.00   2867.00     -0.00
                               -0.00     -0.00   2867.00

     corecor stress (kbar)  -3871.57     -0.00      0.00
                               -0.00  -3871.57      0.00
                                0.00      0.00  -3871.57

     ewald   stress (kbar)  -2988.03     -0.00     -0.00
                               -0.00  -2988.03     -0.00
                               -0.00     -0.00  -2988.04

     hubbard stress (kbar)      0.00      0.00      0.00
                                0.00      0.00      0.00
                                0.00      0.00      0.00

     DFT-D   stress (kbar)      0.00      0.00      0.00
                                0.00      0.00      0.00
                                0.00      0.00      0.00

     XDM     stress (kbar)      0.00      0.00      0.00
                                0.00      0.00      0.00
                                0.00      0.00      0.00

     dft-nl  stress (kbar)      0.00      0.00      0.00
                                0.00      0.00      0.00
                                0.00      0.00      0.00

     TS-vdW  stress (kbar)      0.00      0.00      0.00
                                0.00      0.00      0.00
                                0.00      0.00      0.00

     MDB     stress (kbar)      0.00      0.00      0.00
                                0.00      0.00      0.00
                                0.00      0.00      0.00

     3D-RISM stress (kbar)      0.00      0.00      0.00
                                0.00      0.00      0.00
                                0.00      0.00      0.00

     Energy error            =      4.4E-05 Ry
     Gradient error          =      5.7E-07 Ry/Bohr
     Cell gradient error     =      6.3E+00 kbar

     number of scf cycles    =   2
     number of bfgs steps    =   1

     enthalpy           old  =     -22.6627992744 Ry
     enthalpy           new  =     -22.6628434200 Ry

     CASE: enthalpy          _new < enthalpy          _old

     new trust radius        =       0.0075145776 bohr
     new conv_thr            =            8.0E-12 Ry

     new unit-cell volume =    272.41241 a.u.^3 (    40.36735 Ang^3 )
     density =      2.31059 g/cm^3

CELL_PARAMETERS (angstrom)
   3.850482223   0.000000000   0.000000000
   1.925241111   3.334615422   0.000000000
   1.925241111   1.111538474   3.143904944

ATOMIC_POSITIONS (angstrom)
Si               5.7757233339        3.3346154216        2.3579288575
Si               3.8504822226        2.2230769477        1.5719523229



     Writing config-only to output data dir ./out/aiida.save/ :
     XML data file
     NEW-OLD atomic charge density approx. for the potential
     New effective cutoffs (rho, wfc):  241.59   30.20
     extrapolated charge    8.00072, renormalised to    8.00000

     total cpu time spent up to now is        1.4 secs

     Self-consistent Calculation

     iteration #  1     ecut=    30.00 Ry     beta= 0.40
     Davidson diagonalization with overlap

---- Real-time Memory Report at c_bands before calling an iterative solver
           112 MiB given to the printing process from OS
             0 MiB allocation reported by mallinfo(arena+hblkhd)
         35273 MiB available memory on the node where the printing process lives
------------------
     ethr =  1.00E-06,  avg # of iterations =  2.1

     Threshold (ethr) on eigenvalues was too large:
     Diagonalizing with lowered threshold

     Davidson diagonalization with overlap

---- Real-time Memory Report at c_bands before calling an iterative solver
           113 MiB given to the printing process from OS
             0 MiB allocation reported by mallinfo(arena+hblkhd)
         35272 MiB available memory on the node where the printing process lives
------------------
     ethr =  3.46E-08,  avg # of iterations =  3.2

     total cpu time spent up to now is        1.5 secs

     WARNING: integrated charge=     8.00034486, expected=     8.00000000

     total energy              =     -22.66281705 Ry
     estimated scf accuracy    <       0.00000221 Ry

     iteration #  2     ecut=    30.00 Ry     beta= 0.40
     Davidson diagonalization with overlap

---- Real-time Memory Report at c_bands before calling an iterative solver
           114 MiB given to the printing process from OS
             0 MiB allocation reported by mallinfo(arena+hblkhd)
         35272 MiB available memory on the node where the printing process lives
------------------
     ethr =  2.77E-08,  avg # of iterations =  1.0

     total cpu time spent up to now is        1.5 secs

     WARNING: integrated charge=     8.00077323, expected=     8.00000000

     total energy              =     -22.66281049 Ry
     estimated scf accuracy    <       0.00000057 Ry

     iteration #  3     ecut=    30.00 Ry     beta= 0.40
     Davidson diagonalization with overlap

---- Real-time Memory Report at c_bands before calling an iterative solver
           114 MiB given to the printing process from OS
             0 MiB allocation reported by mallinfo(arena+hblkhd)
         35272 MiB available memory on the node where the printing process lives
------------------
     ethr =  7.18E-09,  avg # of iterations =  2.0

     total cpu time spent up to now is        1.6 secs

     WARNING: integrated charge=     8.00087311, expected=     8.00000000

     total energy              =     -22.66280152 Ry
     estimated scf accuracy    <       0.00000001 Ry

     iteration #  4     ecut=    30.00 Ry     beta= 0.40
     Davidson diagonalization with overlap

---- Real-time Memory Report at c_bands before calling an iterative solver
           114 MiB given to the printing process from OS
             0 MiB allocation reported by mallinfo(arena+hblkhd)
         35271 MiB available memory on the node where the printing process lives
------------------
     ethr =  1.62E-10,  avg # of iterations =  2.3

     total cpu time spent up to now is        1.6 secs

     WARNING: integrated charge=     8.00089536, expected=     8.00000000

     total energy              =     -22.66280547 Ry
     estimated scf accuracy    <       0.00000003 Ry

     iteration #  5     ecut=    30.00 Ry     beta= 0.40
     Davidson diagonalization with overlap

---- Real-time Memory Report at c_bands before calling an iterative solver
           114 MiB given to the printing process from OS
             0 MiB allocation reported by mallinfo(arena+hblkhd)
         35271 MiB available memory on the node where the printing process lives
------------------
     ethr =  1.62E-10,  avg # of iterations =  2.0

     total cpu time spent up to now is        1.7 secs

     WARNING: integrated charge=     8.00089207, expected=     8.00000000

     total energy              =     -22.66280333 Ry
     estimated scf accuracy    <          2.7E-10 Ry

     iteration #  6     ecut=    30.00 Ry     beta= 0.40
     Davidson diagonalization with overlap

---- Real-time Memory Report at c_bands before calling an iterative solver
           114 MiB given to the printing process from OS
             0 MiB allocation reported by mallinfo(arena+hblkhd)
         35271 MiB available memory on the node where the printing process lives
------------------
     ethr =  3.33E-12,  avg # of iterations =  2.5

     total cpu time spent up to now is        1.7 secs

     WARNING: integrated charge=     8.00089129, expected=     8.00000000

     total energy              =     -22.66280306 Ry
     estimated scf accuracy    <          5.7E-11 Ry

     iteration #  7     ecut=    30.00 Ry     beta= 0.40
     Davidson diagonalization with overlap

---- Real-time Memory Report at c_bands before calling an iterative solver
           114 MiB given to the printing process from OS
             0 MiB allocation reported by mallinfo(arena+hblkhd)
         35270 MiB available memory on the node where the printing process lives
------------------
     ethr =  7.08E-13,  avg # of iterations =  1.8

     total cpu time spent up to now is        1.8 secs

     End of self-consistent calculation

          k = 0.0000 0.0000 0.0000 (   749 PWs)   bands (ev):

    -5.8276   6.1166   6.1166   6.1166   8.6146   8.6146   8.6146   9.3352

     occupation numbers
     1.0000   1.0053   1.0053   1.0053   0.0000   0.0000   0.0000   0.0000

          k =-0.0000-0.0000 0.3075 (   769 PWs)   bands (ev):

    -5.0299   2.1701   5.3520   5.3520   8.0378   9.5545   9.5545  12.8884

     occupation numbers
     1.0000   1.0000   1.0000   1.0000   0.0000   0.0000   0.0000   0.0000

          k = 0.0000 0.0000-0.6150 (   778 PWs)   bands (ev):

    -3.4958  -0.8740   4.9146   4.9146   7.5424   9.3772   9.3772  13.6052

     occupation numbers
     1.0000   1.0000   1.0000   1.0000   0.0000   0.0000   0.0000   0.0000

          k =-0.0000 0.2899-0.1025 (   769 PWs)   bands (ev):

    -5.0299   2.1701   5.3520   5.3520   8.0378   9.5545   9.5545  12.8884

     occupation numbers
     1.0000   1.0000   1.0000   1.0000   0.0000   0.0000   0.0000   0.0000

          k =-0.0000 0.2899 0.2050 (   769 PWs)   bands (ev):

    -4.7487   2.5914   4.2141   4.2141   7.1423   9.1270  11.8062  11.8062

     occupation numbers
     1.0000   1.0000   1.0000   1.0000   0.0000   0.0000   0.0000   0.0000

          k = 0.0000 0.2899-0.7175 (   763 PWs)   bands (ev):

    -3.1140  -0.2712   2.5507   3.9006   7.5231  10.4585  11.7617  11.9569

     occupation numbers
     1.0000   1.0000   1.0000   1.0000   0.0000   0.0000   0.0000   0.0000

          k = 0.0000 0.2899-0.4100 (   762 PWs)   bands (ev):

    -3.7877   0.6309   2.3277   4.7825   8.4619  10.8296  11.1550  12.1267

     occupation numbers
     1.0000   1.0000   1.0000   1.0000   0.0000   0.0000   0.0000   0.0000

          k = 0.0000-0.5798 0.2050 (   778 PWs)   bands (ev):

    -3.4958  -0.8740   4.9146   4.9146   7.5424   9.3772   9.3772  13.6052

     occupation numbers
     1.0000   1.0000   1.0000   1.0000   0.0000   0.0000   0.0000   0.0000

          k = 0.0000-0.5798 0.5125 (   763 PWs)   bands (ev):

    -3.1140  -0.2712   2.5507   3.9006   7.5231  10.4585  11.7617  11.9569

     occupation numbers
     1.0000   1.0000   1.0000   1.0000   0.0000   0.0000   0.0000   0.0000

          k = 0.0000-0.5798-0.4100 (   774 PWs)   bands (ev):

    -1.6943  -1.6943   3.2519   3.2519   6.7052   6.7052  16.0923  16.0923

     occupation numbers
     1.0000   1.0000   1.0000   1.0000   0.0021   0.0021   0.0000   0.0000

          k = 0.2511-0.7248 0.1025 (   763 PWs)   bands (ev):

    -3.1140  -0.2712   2.5507   3.9006   7.5231  10.4585  11.7617  11.9569

     occupation numbers
     1.0000   1.0000   1.0000   1.0000   0.0000   0.0000   0.0000   0.0000

          k = 0.2511-0.7248 0.4100 (   762 PWs)   bands (ev):

    -3.7877   0.6309   2.3277   4.7825   8.4619  10.8296  11.1550  12.1267

     occupation numbers
     1.0000   1.0000   1.0000   1.0000   0.0000   0.0000   0.0000   0.0000

          k = 0.2511-0.7248-0.2050 (   744 PWs)   bands (ev):

    -1.5269  -1.5268   2.2273   2.2273  10.2824  10.2824  11.0190  11.0190

     occupation numbers
     1.0000   1.0000   1.0000   1.0000   0.0000   0.0000   0.0000   0.0000

     the Fermi energy is     6.4825 ev

     WARNING: integrated charge=     8.00089101, expected=     8.00000000

!    total energy              =     -22.66280318 Ry
     estimated scf accuracy    <          1.1E-12 Ry
     smearing contrib. (-TS)   =       0.00000737 Ry
     internal energy E=F+TS    =     -22.66281055 Ry

     The total energy is F=E-TS. E is the sum of the following terms:
     one-electron contribution =       5.11744330 Ry
     hartree contribution      =       1.11093802 Ry
     xc contribution           =     -12.13976856 Ry
     ewald contribution        =     -16.75142331 Ry

     convergence has been achieved in   7 iterations

     Forces acting on atoms (cartesian axes, Ry/au):

     atom    1 type  1   force =     0.00000000    0.00000000   -0.00000025
     atom    2 type  1   force =    -0.00000000   -0.00000000    0.00000025
     The non-local contrib.  to forces
     atom    1 type  1   force =     0.00000000    0.00000000   -0.00000030
     atom    2 type  1   force =    -0.00000000   -0.00000000    0.00000030
     The ionic contribution  to forces
     atom    1 type  1   force =    -0.00000000   -0.00000000   -0.00000098
     atom    2 type  1   force =    -0.00000000    0.00000000    0.00000098
     The local contribution  to forces
     atom    1 type  1   force =    -0.00000000    0.00000000    0.00000099
     atom    2 type  1   force =    -0.00000000    0.00000000   -0.00000099
     The core correction contribution to forces
     atom    1 type  1   force =    -0.00000000   -0.00000000    0.00000004
     atom    2 type  1   force =    -0.00000000   -0.00000000   -0.00000004
     The Hubbard contrib.    to forces
     atom    1 type  1   force =     0.00000000    0.00000000    0.00000000
     atom    2 type  1   force =     0.00000000    0.00000000    0.00000000
     The SCF correction term to forces
     atom    1 type  1   force =     0.00000000   -0.00000000   -0.00000001
     atom    2 type  1   force =    -0.00000000   -0.00000000    0.00000001

     Total force =     0.000000     Total SCF correction =     0.000000


     Computing stress (Cartesian axis) and pressure

          total   stress  (Ry/bohr**3)                   (kbar)     P=        0.13
   0.00000086   0.00000000   0.00000000            0.13        0.00        0.00
   0.00000000   0.00000086  -0.00000000            0.00        0.13       -0.00
   0.00000000  -0.00000000   0.00000086            0.00       -0.00        0.13

     kinetic stress (kbar)   2198.44      0.00      0.00
                                0.00   2198.44     -0.00
                                0.00     -0.00   2198.44

     local   stress (kbar)     25.78      0.00      0.00
                                0.00     25.78      0.00
                                0.00      0.00     25.78

     nonloc. stress (kbar)   1604.30      0.00      0.00
                                0.00   1604.30     -0.00
                                0.00     -0.00   1604.30

     hartree stress (kbar)    199.97      0.00     -0.00
                                0.00    199.97      0.00
                               -0.00      0.00    199.97

     exc-cor stress (kbar)   2885.56     -0.00     -0.00
                               -0.00   2885.56     -0.00
                               -0.00     -0.00   2885.56

     corecor stress (kbar)  -3898.61      0.00     -0.00
                                0.00  -3898.61      0.00
                               -0.00      0.00  -3898.61

     ewald   stress (kbar)  -3015.31     -0.00      0.00
                               -0.00  -3015.31     -0.00
                                0.00     -0.00  -3015.30

     hubbard stress (kbar)      0.00      0.00      0.00
                                0.00      0.00      0.00
                                0.00      0.00      0.00

     DFT-D   stress (kbar)      0.00      0.00      0.00
                                0.00      0.00      0.00
                                0.00      0.00      0.00

     XDM     stress (kbar)      0.00      0.00      0.00
                                0.00      0.00      0.00
                                0.00      0.00      0.00

     dft-nl  stress (kbar)      0.00      0.00      0.00
                                0.00      0.00      0.00
                                0.00      0.00      0.00

     TS-vdW  stress (kbar)      0.00      0.00      0.00
                                0.00      0.00      0.00
                                0.00      0.00      0.00

     MDB     stress (kbar)      0.00      0.00      0.00
                                0.00      0.00      0.00
                                0.00      0.00      0.00

     3D-RISM stress (kbar)      0.00      0.00      0.00
                                0.00      0.00      0.00
                                0.00      0.00      0.00

     Energy error            =      4.0E-05 Ry
     Gradient error          =      2.5E-07 Ry/Bohr
     Cell gradient error     =      1.3E-01 kbar

     bfgs converged in   3 scf cycles and   2 bfgs steps
     (criteria: energy <  2.0E-04 Ry, force <  1.0E-03 Ry/Bohr, cell <  5.0E-01 kbar)

     End of BFGS Geometry Optimization

     Final enthalpy           =     -22.6628031775 Ry

     File ./out/aiida.bfgs deleted, as requested
Begin final coordinates
     new unit-cell volume =    272.41241 a.u.^3 (    40.36735 Ang^3 )
     density =      2.31059 g/cm^3

CELL_PARAMETERS (angstrom)
   3.850482223   0.000000000   0.000000000
   1.925241111   3.334615422   0.000000000
   1.925241111   1.111538474   3.143904944

ATOMIC_POSITIONS (angstrom)
Si               5.7757233339        3.3346154216        2.3579288575
Si               3.8504822226        2.2230769477        1.5719523229
End final coordinates



     Writing config-only to output data dir ./out/aiida.save/ :
     XML data file

     Final scf calculation at the relaxed structure.
     The G-vectors are recalculated for the final unit cell
     Results may differ from those at the preceding step.

     Parallelization info
     --------------------
     sticks:   dense  smooth     PW     G-vecs:    dense   smooth      PW
     Min         217     108     34                 4240     1495     266
     Max         219     109     35                 4241     1498     267
     Sum         871     433    139                16961     5985    1067

     Using Slab Decomposition



     bravais-lattice index     =            0
     lattice parameter (alat)  =       7.3075  a.u.
     unit-cell volume          =     272.4124 (a.u.)^3
     number of atoms/cell      =            2
     number of atomic types    =            1
     number of electrons       =         8.00
     number of Kohn-Sham states=            8
     kinetic-energy cutoff     =      30.0000  Ry
     charge density cutoff     =     240.0000  Ry
     scf convergence threshold =      8.0E-12
     mixing beta               =       0.4000
     number of iterations used =            8  plain     mixing
     press convergence thresh. =      5.0E-01
     Exchange-correlation= PBESOL
                           (   1   4  10   8   0   0   0)

     celldm(1)=   7.307523  celldm(2)=   0.000000  celldm(3)=   0.000000
     celldm(4)=   0.000000  celldm(5)=   0.000000  celldm(6)=   0.000000

     crystal axes: (cart. coord. in units of alat)
               a(1) = (   0.995735   0.000000   0.000000 )
               a(2) = (   0.497868   0.862332   0.000000 )
               a(3) = (   0.497868   0.287444   0.813014 )

     reciprocal axes: (cart. coord. in units 2 pi/alat)
               b(1) = (  1.004283 -0.579823 -0.409997 )
               b(2) = ( -0.000000  1.159646 -0.409997 )
               b(3) = ( -0.000000 -0.000000  1.229991 )


     PseudoPot. # 1 for Si read from file:
     ./pseudo/Si.pbesol-n-rrkjus_psl.1.0.0.UPF
     MD5 check sum: c4212819de858c94c3a1644338846ac9
     Pseudo is Ultrasoft + core correction, Zval =  4.0
     Generated using "atomic" code by A. Dal Corso  v.6.0 svn rev. 13079
     Using radial grid of 1141 points,  6 beta functions with:
                l(1) =   0
                l(2) =   0
                l(3) =   1
                l(4) =   1
                l(5) =   2
                l(6) =   2
     Q(r) pseudized with 0 coefficients


     atomic species   valence    mass     pseudopotential
     Si                4.00    28.08500     Si( 1.00)

     12 Sym. Ops., with inversion, found ( 6 have fractional translation)


                                    s                        frac. trans.

      isym =  1     identity

 cryst.   s( 1) = (     1          0          0      )
                  (     0          1          0      )
                  (     0          0          1      )

 cart.    s( 1) = (  1.0000000  0.0000000  0.0000000 )
                  (  0.0000000  1.0000000  0.0000000 )
                  (  0.0000000  0.0000000  1.0000000 )


      isym =  2     180 deg rotation - cart. axis [1,0,0]

 cryst.   s( 2) = (     1          0          0      )    f =( -0.2500000 )
                  (     1         -1          0      )       ( -0.2500000 )
                  (     1          0         -1      )       ( -0.2500000 )

 cart.    s( 2) = (  1.0000000  0.0000000  0.0000000 )    f =( -0.4978675 )
                  (  0.0000000 -1.0000000  0.0000000 )       ( -0.2874440 )
                  (  0.0000000  0.0000000 -1.0000000 )       ( -0.2032535 )


      isym =  3     120 deg rotation - cryst. axis [0,0,1]

 cryst.   s( 3) = (    -1          1          0      )
                  (    -1          0          0      )
                  (    -1          0          1      )

 cart.    s( 3) = ( -0.5000000 -0.8660254  0.0000000 )
                  (  0.8660254 -0.5000000  0.0000000 )
                  (  0.0000000  0.0000000  1.0000000 )


      isym =  4     120 deg rotation - cryst. axis [0,0,-1]

 cryst.   s( 4) = (     0         -1          0      )
                  (     1         -1          0      )
                  (     0         -1          1      )

 cart.    s( 4) = ( -0.5000000  0.8660254 -0.0000000 )
                  ( -0.8660254 -0.5000000  0.0000000 )
                  (  0.0000000  0.0000000  1.0000000 )


      isym =  5     180 deg rotation - cryst. axis [0,1,0]

 cryst.   s( 5) = (     0         -1          0      )    f =( -0.2500000 )
                  (    -1          0          0      )       ( -0.2500000 )
                  (     0          0         -1      )       ( -0.2500000 )

 cart.    s( 5) = ( -0.5000000 -0.8660254  0.0000000 )    f =( -0.4978675 )
                  ( -0.8660254  0.5000000 -0.0000000 )       ( -0.2874440 )
                  (  0.0000000  0.0000000 -1.0000000 )       ( -0.2032535 )


      isym =  6     180 deg rotation - cryst. axis [1,1,0]

 cryst.   s( 6) = (    -1          1          0      )    f =( -0.2500000 )
                  (     0          1          0      )       ( -0.2500000 )
                  (     0          1         -1      )       ( -0.2500000 )

 cart.    s( 6) = ( -0.5000000  0.8660254 -0.0000000 )    f =( -0.4978675 )
                  (  0.8660254  0.5000000 -0.0000000 )       ( -0.2874440 )
                  (  0.0000000  0.0000000 -1.0000000 )       ( -0.2032535 )


      isym =  7     inversion

 cryst.   s( 7) = (    -1          0          0      )    f =( -0.2500000 )
                  (     0         -1          0      )       ( -0.2500000 )
                  (     0          0         -1      )       ( -0.2500000 )

 cart.    s( 7) = ( -1.0000000  0.0000000  0.0000000 )    f =( -0.4978675 )
                  (  0.0000000 -1.0000000  0.0000000 )       ( -0.2874440 )
                  (  0.0000000  0.0000000 -1.0000000 )       ( -0.2032535 )


      isym =  8     inv. 180 deg rotation - cart. axis [1,0,0]

 cryst.   s( 8) = (    -1          0          0      )
                  (    -1          1          0      )
                  (    -1          0          1      )

 cart.    s( 8) = ( -1.0000000  0.0000000  0.0000000 )
                  (  0.0000000  1.0000000  0.0000000 )
                  (  0.0000000  0.0000000  1.0000000 )


      isym =  9     inv. 120 deg rotation - cryst. axis [0,0,1]

 cryst.   s( 9) = (     1         -1          0      )    f =( -0.2500000 )
                  (     1          0          0      )       ( -0.2500000 )
                  (     1          0         -1      )       ( -0.2500000 )

 cart.    s( 9) = (  0.5000000  0.8660254 -0.0000000 )    f =( -0.4978675 )
                  ( -0.8660254  0.5000000 -0.0000000 )       ( -0.2874440 )
                  (  0.0000000  0.0000000 -1.0000000 )       ( -0.2032535 )


      isym = 10     inv. 120 deg rotation - cryst. axis [0,0,-1]

 cryst.   s(10) = (     0          1          0      )    f =( -0.2500000 )
                  (    -1          1          0      )       ( -0.2500000 )
                  (     0          1         -1      )       ( -0.2500000 )

 cart.    s(10) = (  0.5000000 -0.8660254  0.0000000 )    f =( -0.4978675 )
                  (  0.8660254  0.5000000 -0.0000000 )       ( -0.2874440 )
                  (  0.0000000  0.0000000 -1.0000000 )       ( -0.2032535 )


      isym = 11     inv. 180 deg rotation - cryst. axis [0,1,0]

 cryst.   s(11) = (     0          1          0      )
                  (     1          0          0      )
                  (     0          0          1      )

 cart.    s(11) = (  0.5000000  0.8660254 -0.0000000 )
                  (  0.8660254 -0.5000000  0.0000000 )
                  (  0.0000000  0.0000000  1.0000000 )


      isym = 12     inv. 180 deg rotation - cryst. axis [1,1,0]

 cryst.   s(12) = (     1         -1          0      )
                  (     0         -1          0      )
                  (     0         -1          1      )

 cart.    s(12) = (  0.5000000 -0.8660254  0.0000000 )
                  ( -0.8660254 -0.5000000  0.0000000 )
                  (  0.0000000  0.0000000  1.0000000 )


   Cartesian axes

     site n.     atom                  positions (alat units)
         1        Si     tau(   1) = (   1.4936026   0.8623319   0.6097606  )
         2        Si     tau(   2) = (   0.9957351   0.5748879   0.4065070  )

   Crystallographic axes

     site n.     atom                  positions (cryst. coord.)
         1        Si     tau(   1) = (  0.7500000  0.7500000  0.7500000  )
         2        Si     tau(   2) = (  0.5000000  0.5000000  0.5000000  )

     number of k points=    13  Marzari-Vanderbilt smearing, width (Ry)=  0.0100
                       cart. coord. in units 2pi/alat
        k(    1) = (   0.0000000   0.0000000   0.0000000), wk =   0.0312500
        k(    2) = (  -0.0000000  -0.0000000   0.3074977), wk =   0.0625000
        k(    3) = (   0.0000000   0.0000000  -0.6149955), wk =   0.0312500
        k(    4) = (  -0.0000000   0.2899116  -0.1024992), wk =   0.1875000
        k(    5) = (  -0.0000000   0.2899116   0.2049985), wk =   0.1875000
        k(    6) = (   0.0000000   0.2899116  -0.7174947), wk =   0.1875000
        k(    7) = (   0.0000000   0.2899116  -0.4099970), wk =   0.1875000
        k(    8) = (   0.0000000  -0.5798232   0.2049985), wk =   0.0937500
        k(    9) = (   0.0000000  -0.5798232   0.5124962), wk =   0.1875000
        k(   10) = (   0.0000000  -0.5798232  -0.4099970), wk =   0.0937500
        k(   11) = (   0.2510708  -0.7247790   0.1024992), wk =   0.3750000
        k(   12) = (   0.2510708  -0.7247790   0.4099970), wk =   0.1875000
        k(   13) = (   0.2510708  -0.7247790  -0.2049985), wk =   0.1875000

                       cryst. coord.
        k(    1) = (   0.0000000   0.0000000   0.0000000), wk =   0.0312500
        k(    2) = (   0.0000000   0.0000000   0.2500000), wk =   0.0625000
        k(    3) = (   0.0000000  -0.0000000  -0.5000000), wk =   0.0312500
        k(    4) = (  -0.0000000   0.2500000  -0.0000000), wk =   0.1875000
        k(    5) = (   0.0000000   0.2500000   0.2500000), wk =   0.1875000
        k(    6) = (  -0.0000000   0.2500000  -0.5000000), wk =   0.1875000
        k(    7) = (  -0.0000000   0.2500000  -0.2500000), wk =   0.1875000
        k(    8) = (   0.0000000  -0.5000000   0.0000000), wk =   0.0937500
        k(    9) = (   0.0000000  -0.5000000   0.2500000), wk =   0.1875000
        k(   10) = (  -0.0000000  -0.5000000  -0.5000000), wk =   0.0937500
        k(   11) = (   0.2500000  -0.5000000  -0.0000000), wk =   0.3750000
        k(   12) = (   0.2500000  -0.5000000   0.2500000), wk =   0.1875000
        k(   13) = (   0.2500000  -0.5000000  -0.2500000), wk =   0.1875000

     Dense  grid:    16961 G-vectors     FFT dimensions: (  36,  36,  36)

     Smooth grid:     5985 G-vectors     FFT dimensions: (  32,  32,  32)

     Dynamical RAM for                 wfc:       0.02 MB

     Dynamical RAM for     wfc (w. buffer):       0.14 MB

     Dynamical RAM for           str. fact:       0.06 MB

     Dynamical RAM for           local pot:       0.03 MB

     Dynamical RAM for          nlocal pot:       0.10 MB

     Dynamical RAM for                qrad:       2.49 MB

     Dynamical RAM for          rho,v,vnew:       0.46 MB

     Dynamical RAM for               rhoin:       0.15 MB

     Dynamical RAM for            rho*nmix:       1.04 MB

     Dynamical RAM for           G-vectors:       0.25 MB

     Dynamical RAM for          h,s,v(r/c):       0.01 MB

     Dynamical RAM for          <psi|beta>:       0.00 MB

     Dynamical RAM for                 psi:       0.05 MB

     Dynamical RAM for                hpsi:       0.05 MB

     Dynamical RAM for                spsi:       0.05 MB

     Dynamical RAM for      wfcinit/wfcrot:       0.05 MB

     Dynamical RAM for           addusdens:       4.10 MB

     Dynamical RAM for          addusforce:       4.14 MB

     Dynamical RAM for         addusstress:       4.36 MB

     Estimated static dynamical RAM per process >       4.27 MB

     Estimated max dynamical RAM per process >       9.66 MB

     Estimated total dynamical RAM >     107.66 MB

     Initial potential from superposition of free atoms

     starting charge       7.9989, renormalised to       8.0000
     Starting wfcs are    8 randomized atomic wfcs

     total cpu time spent up to now is        1.9 secs

     Self-consistent Calculation

     iteration #  1     ecut=    30.00 Ry     beta= 0.40
     Davidson diagonalization with overlap

---- Real-time Memory Report at c_bands before calling an iterative solver
           115 MiB given to the printing process from OS
             0 MiB allocation reported by mallinfo(arena+hblkhd)
         35236 MiB available memory on the node where the printing process lives
------------------
     ethr =  1.00E-06,  avg # of iterations = 13.8

     total cpu time spent up to now is        2.0 secs

     total energy              =     -22.66588974 Ry
     estimated scf accuracy    <       0.06115147 Ry

     iteration #  2     ecut=    30.00 Ry     beta= 0.40
     Davidson diagonalization with overlap

---- Real-time Memory Report at c_bands before calling an iterative solver
           115 MiB given to the printing process from OS
             0 MiB allocation reported by mallinfo(arena+hblkhd)
         35236 MiB available memory on the node where the printing process lives
------------------
     ethr =  7.64E-04,  avg # of iterations =  1.0

     total cpu time spent up to now is        2.1 secs

     WARNING: integrated charge=     8.00003315, expected=     8.00000000

     total energy              =     -22.66218504 Ry
     estimated scf accuracy    <       0.01630045 Ry

     iteration #  3     ecut=    30.00 Ry     beta= 0.40
     Davidson diagonalization with overlap

---- Real-time Memory Report at c_bands before calling an iterative solver
           115 MiB given to the printing process from OS
             0 MiB allocation reported by mallinfo(arena+hblkhd)
         35236 MiB available memory on the node where the printing process lives
------------------
     ethr =  2.04E-04,  avg # of iterations =  1.0

     total cpu time spent up to now is        2.1 secs

     WARNING: integrated charge=     8.00103940, expected=     8.00000000

     total energy              =     -22.66257544 Ry
     estimated scf accuracy    <       0.00024660 Ry

     iteration #  4     ecut=    30.00 Ry     beta= 0.40
     Davidson diagonalization with overlap

---- Real-time Memory Report at c_bands before calling an iterative solver
           115 MiB given to the printing process from OS
             0 MiB allocation reported by mallinfo(arena+hblkhd)
         35236 MiB available memory on the node where the printing process lives
------------------
     ethr =  3.08E-06,  avg # of iterations =  2.8

     total cpu time spent up to now is        2.2 secs

     WARNING: integrated charge=     8.00099504, expected=     8.00000000

     total energy              =     -22.66278415 Ry
     estimated scf accuracy    <       0.00000131 Ry

     iteration #  5     ecut=    30.00 Ry     beta= 0.40
     Davidson diagonalization with overlap

---- Real-time Memory Report at c_bands before calling an iterative solver
           115 MiB given to the printing process from OS
             0 MiB allocation reported by mallinfo(arena+hblkhd)
         35236 MiB available memory on the node where the printing process lives
------------------
     ethr =  1.63E-08,  avg # of iterations =  3.2

     total cpu time spent up to now is        2.2 secs

     WARNING: integrated charge=     8.00086574, expected=     8.00000000

     total energy              =     -22.66279009 Ry
     estimated scf accuracy    <       0.00000034 Ry

     iteration #  6     ecut=    30.00 Ry     beta= 0.40
     Davidson diagonalization with overlap

---- Real-time Memory Report at c_bands before calling an iterative solver
           115 MiB given to the printing process from OS
             0 MiB allocation reported by mallinfo(arena+hblkhd)
         35235 MiB available memory on the node where the printing process lives
------------------
     ethr =  4.28E-09,  avg # of iterations =  1.4

     total cpu time spent up to now is        2.3 secs

     WARNING: integrated charge=     8.00088861, expected=     8.00000000

     total energy              =     -22.66279432 Ry
     estimated scf accuracy    <       0.00000003 Ry

     iteration #  7     ecut=    30.00 Ry     beta= 0.40
     Davidson diagonalization with overlap

---- Real-time Memory Report at c_bands before calling an iterative solver
           115 MiB given to the printing process from OS
             0 MiB allocation reported by mallinfo(arena+hblkhd)
         35235 MiB available memory on the node where the printing process lives
------------------
     ethr =  3.34E-10,  avg # of iterations =  1.9

     total cpu time spent up to now is        2.3 secs

     WARNING: integrated charge=     8.00088787, expected=     8.00000000

     total energy              =     -22.66279382 Ry
     estimated scf accuracy    <          3.8E-10 Ry

     iteration #  8     ecut=    30.00 Ry     beta= 0.40
     Davidson diagonalization with overlap

---- Real-time Memory Report at c_bands before calling an iterative solver
           115 MiB given to the printing process from OS
             0 MiB allocation reported by mallinfo(arena+hblkhd)
         35235 MiB available memory on the node where the printing process lives
------------------
     ethr =  4.72E-12,  avg # of iterations =  3.7

     total cpu time spent up to now is        2.4 secs

     WARNING: integrated charge=     8.00088849, expected=     8.00000000

     total energy              =     -22.66279392 Ry
     estimated scf accuracy    <          2.6E-11 Ry

     iteration #  9     ecut=    30.00 Ry     beta= 0.40
     Davidson diagonalization with overlap

---- Real-time Memory Report at c_bands before calling an iterative solver
           115 MiB given to the printing process from OS
             0 MiB allocation reported by mallinfo(arena+hblkhd)
         35235 MiB available memory on the node where the printing process lives
------------------
     ethr =  3.22E-13,  avg # of iterations =  1.8

     total cpu time spent up to now is        2.4 secs

     End of self-consistent calculation

          k = 0.0000 0.0000 0.0000 (   749 PWs)   bands (ev):

    -5.8276   6.1166   6.1166   6.1166   8.6146   8.6146   8.6146   9.3352

     occupation numbers
     1.0000   1.0053   1.0053   1.0053   0.0000   0.0000   0.0000   0.0000

          k =-0.0000-0.0000 0.3075 (   757 PWs)   bands (ev):

    -5.0298   2.1701   5.3521   5.3521   8.0379   9.5545   9.5545  12.8884

     occupation numbers
     1.0000   1.0000   1.0000   1.0000   0.0000   0.0000   0.0000   0.0000

          k = 0.0000 0.0000-0.6150 (   754 PWs)   bands (ev):

    -3.4958  -0.8739   4.9146   4.9146   7.5424   9.3773   9.3773  13.6053

     occupation numbers
     1.0000   1.0000   1.0000   1.0000   0.0000   0.0000   0.0000   0.0000

          k =-0.0000 0.2899-0.1025 (   757 PWs)   bands (ev):

    -5.0298   2.1701   5.3521   5.3521   8.0379   9.5545   9.5546  12.8885

     occupation numbers
     1.0000   1.0000   1.0000   1.0000   0.0000   0.0000   0.0000   0.0000

          k =-0.0000 0.2899 0.2050 (   769 PWs)   bands (ev):

    -4.7487   2.5914   4.2141   4.2141   7.1423   9.1270  11.8062  11.8062

     occupation numbers
     1.0000   1.0000   1.0000   1.0000   0.0000   0.0000   0.0000   0.0000

          k = 0.0000 0.2899-0.7175 (   758 PWs)   bands (ev):

    -3.1140  -0.2712   2.5507   3.9007   7.5231  10.4586  11.7618  11.9569

     occupation numbers
     1.0000   1.0000   1.0000   1.0000   0.0000   0.0000   0.0000   0.0000

          k = 0.0000 0.2899-0.4100 (   754 PWs)   bands (ev):

    -3.7877   0.6309   2.3277   4.7825   8.4621  10.8297  11.1551  12.1267

     occupation numbers
     1.0000   1.0000   1.0000   1.0000   0.0000   0.0000   0.0000   0.0000

          k = 0.0000-0.5798 0.2050 (   754 PWs)   bands (ev):

    -3.4958  -0.8739   4.9146   4.9146   7.5424   9.3773   9.3773  13.6053

     occupation numbers
     1.0000   1.0000   1.0000   1.0000   0.0000   0.0000   0.0000   0.0000

          k = 0.0000-0.5798 0.5125 (   758 PWs)   bands (ev):

    -3.1140  -0.2712   2.5507   3.9007   7.5231  10.4586  11.7618  11.9569

     occupation numbers
     1.0000   1.0000   1.0000   1.0000   0.0000   0.0000   0.0000   0.0000

          k = 0.0000-0.5798-0.4100 (   740 PWs)   bands (ev):

    -1.6942  -1.6942   3.2520   3.2520   6.7055   6.7055  16.0925  16.0925

     occupation numbers
     1.0000   1.0000   1.0000   1.0000   0.0021   0.0021   0.0000   0.0000

          k = 0.2511-0.7248 0.1025 (   758 PWs)   bands (ev):

    -3.1140  -0.2712   2.5507   3.9007   7.5231  10.4586  11.7618  11.9569

     occupation numbers
     1.0000   1.0000   1.0000   1.0000   0.0000   0.0000   0.0000   0.0000

          k = 0.2511-0.7248 0.4100 (   754 PWs)   bands (ev):

    -3.7877   0.6309   2.3277   4.7825   8.4621  10.8297  11.1551  12.1267

     occupation numbers
     1.0000   1.0000   1.0000   1.0000   0.0000   0.0000   0.0000   0.0000

          k = 0.2511-0.7248-0.2050 (   744 PWs)   bands (ev):

    -1.5268  -1.5268   2.2273   2.2273  10.2824  10.2824  11.0191  11.0191

     occupation numbers
     1.0000   1.0000   1.0000   1.0000   0.0000   0.0000   0.0000   0.0000

     the Fermi energy is     6.4826 ev

     WARNING: integrated charge=     8.00088840, expected=     8.00000000

!    total energy              =     -22.66279398 Ry
     estimated scf accuracy    <          8.2E-13 Ry
     smearing contrib. (-TS)   =       0.00000735 Ry
     internal energy E=F+TS    =     -22.66280132 Ry

     The total energy is F=E-TS. E is the sum of the following terms:
     one-electron contribution =       5.11745109 Ry
     hartree contribution      =       1.11093191 Ry
     xc contribution           =     -12.13976101 Ry
     ewald contribution        =     -16.75142331 Ry

     convergence has been achieved in   9 iterations

     Forces acting on atoms (cartesian axes, Ry/au):

     atom    1 type  1   force =     0.00000000    0.00000000   -0.00000023
     atom    2 type  1   force =    -0.00000000   -0.00000000    0.00000023
     The non-local contrib.  to forces
     atom    1 type  1   force =    -0.00000000    0.00000000   -0.00000040
     atom    2 type  1   force =    -0.00000000    0.00000000    0.00000040
     The ionic contribution  to forces
     atom    1 type  1   force =     0.00000000   -0.00000000   -0.00000098
     atom    2 type  1   force =     0.00000000    0.00000000    0.00000098
     The local contribution  to forces
     atom    1 type  1   force =     0.00000000    0.00000000    0.00000121
     atom    2 type  1   force =     0.00000000    0.00000000   -0.00000121
     The core correction contribution to forces
     atom    1 type  1   force =     0.00000000   -0.00000000    0.00000006
     atom    2 type  1   force =     0.00000000   -0.00000000   -0.00000006
     The Hubbard contrib.    to forces
     atom    1 type  1   force =     0.00000000    0.00000000    0.00000000
     atom    2 type  1   force =     0.00000000    0.00000000    0.00000000
     The SCF correction term to forces
     atom    1 type  1   force =     0.00000000    0.00000000   -0.00000012
     atom    2 type  1   force =    -0.00000000    0.00000000    0.00000012

     Total force =     0.000000     Total SCF correction =     0.000000
     SCF correction compared to forces is large: reduce conv_thr to get better values


     Computing stress (Cartesian axis) and pressure

          total   stress  (Ry/bohr**3)                   (kbar)     P=        0.08
   0.00000057   0.00000000   0.00000000            0.08        0.00        0.00
   0.00000000   0.00000057  -0.00000000            0.00        0.08       -0.00
   0.00000000  -0.00000000   0.00000057            0.00       -0.00        0.08

     kinetic stress (kbar)   2198.43      0.00      0.00
                                0.00   2198.43     -0.00
                                0.00     -0.00   2198.43

     local   stress (kbar)     25.79     -0.00     -0.00
                               -0.00     25.79      0.00
                               -0.00      0.00     25.79

     nonloc. stress (kbar)   1604.27      0.00      0.00
                                0.00   1604.27     -0.00
                                0.00     -0.00   1604.27

     hartree stress (kbar)    199.97      0.00      0.00
                                0.00    199.97      0.00
                                0.00      0.00    199.97

     exc-cor stress (kbar)   2885.56      0.00     -0.00
                                0.00   2885.56     -0.00
                               -0.00     -0.00   2885.56

     corecor stress (kbar)  -3898.63      0.00     -0.00
                                0.00  -3898.63      0.00
                               -0.00      0.00  -3898.63

     ewald   stress (kbar)  -3015.31     -0.00     -0.00
                               -0.00  -3015.31     -0.00
                               -0.00     -0.00  -3015.30

     hubbard stress (kbar)      0.00      0.00      0.00
                                0.00      0.00      0.00
                                0.00      0.00      0.00

     DFT-D   stress (kbar)      0.00      0.00      0.00
                                0.00      0.00      0.00
                                0.00      0.00      0.00

     XDM     stress (kbar)      0.00      0.00      0.00
                                0.00      0.00      0.00
                                0.00      0.00      0.00

     dft-nl  stress (kbar)      0.00      0.00      0.00
                                0.00      0.00      0.00
                                0.00      0.00      0.00

     TS-vdW  stress (kbar)      0.00      0.00      0.00
                                0.00      0.00      0.00
                                0.00      0.00      0.00

     MDB     stress (kbar)      0.00      0.00      0.00
                                0.00      0.00      0.00
                                0.00      0.00      0.00

     3D-RISM stress (kbar)      0.00      0.00      0.00
                                0.00      0.00      0.00
                                0.00      0.00      0.00


     Writing all to output data dir ./out/aiida.save/ :
     XML data file, charge density, pseudopotentials, collected wavefunctions

     init_run     :      0.32s CPU      0.35s WALL (       2 calls)
     electrons    :      1.55s CPU      1.63s WALL (       4 calls)
     update_pot   :      0.02s CPU      0.02s WALL (       2 calls)
     forces       :      0.10s CPU      0.10s WALL (       4 calls)
     stress       :      0.24s CPU      0.25s WALL (       4 calls)

     Called by init_run:
     wfcinit      :      0.01s CPU      0.01s WALL (       2 calls)
     wfcinit:atom :      0.00s CPU      0.00s WALL (      10 calls)
     wfcinit:wfcr :      0.01s CPU      0.01s WALL (      10 calls)
     potinit      :      0.05s CPU      0.05s WALL (       2 calls)
     hinit0       :      0.20s CPU      0.21s WALL (       2 calls)

     Called by electrons:
     c_bands      :      0.64s CPU      0.68s WALL (      31 calls)
     sum_band     :      0.42s CPU      0.43s WALL (      31 calls)
     v_of_rho     :      0.24s CPU      0.25s WALL (      32 calls)
     v_h          :      0.01s CPU      0.01s WALL (      32 calls)
     v_xc         :      0.28s CPU      0.29s WALL (      40 calls)
     newd         :      0.25s CPU      0.27s WALL (      32 calls)
     mix_rho      :      0.01s CPU      0.01s WALL (      31 calls)

     Called by c_bands:
     init_us_2    :      0.03s CPU      0.03s WALL (     360 calls)
     cegterg      :      0.50s CPU      0.52s WALL (     155 calls)

     Called by sum_band:
     sum_band:wei :      0.01s CPU      0.01s WALL (      31 calls)
     sum_band:loo :      0.11s CPU      0.11s WALL (      31 calls)
     sum_band:buf :      0.00s CPU      0.00s WALL (     155 calls)
     sum_band:ini :      0.01s CPU      0.01s WALL (     155 calls)
     sum_band:cal :      0.01s CPU      0.01s WALL (     155 calls)
     sum_band:bec :      0.00s CPU      0.00s WALL (     155 calls)
     addusdens    :      0.25s CPU      0.25s WALL (      31 calls)
                                        0.00s GPU  (      31 calls)
     addusd:skk   :      0.00s CPU      0.00s WALL (      31 calls)
                                        0.00s GPU  (      31 calls)

     Called by *egterg:
     cdiaghg      :      0.06s CPU      0.06s WALL (     528 calls)
     cegterg:over :      0.02s CPU      0.02s WALL (     398 calls)
     cegterg:upda :      0.01s CPU      0.01s WALL (     398 calls)
     cegterg:last :      0.01s CPU      0.01s WALL (     330 calls)
     h_psi        :      0.38s CPU      0.40s WALL (     563 calls)
     s_psi        :      0.01s CPU      0.01s WALL (     563 calls)
     g_psi        :      0.00s CPU      0.00s WALL (     398 calls)

     Called by h_psi:
     h_psi:calbec :      0.03s CPU      0.04s WALL (     563 calls)
     vloc_psi     :      0.33s CPU      0.34s WALL (     563 calls)
     add_vuspsi   :      0.01s CPU      0.01s WALL (     563 calls)

     General routines
     calbec       :      0.05s CPU      0.05s WALL (     818 calls)
     fft          :      0.10s CPU      0.10s WALL (     513 calls)
     ffts         :      0.01s CPU      0.01s WALL (      63 calls)
     fftw         :      0.29s CPU      0.30s WALL (    8146 calls)
     interpolate  :      0.01s CPU      0.01s WALL (      32 calls)

     Parallel routines

     PWSCF        :      2.35s CPU      2.51s WALL


   This run was terminated on:  16:39:15  24Jul2024

=------------------------------------------------------------------------------=
   JOB DONE.
=------------------------------------------------------------------------------=
